# vtk DataFile Version 3.0
vtk output
ASCII
DATASET STRUCTURED_GRID
DIMENSIONS 137 139 2
POINTS 38086 float
.000000 -.000001 .000000 
.268000 -.000001 .000000 
.536000 -.000001 .000000 
.804000 -.000001 .000000 
1.072000 -.000001 .000000 
1.340000 -.000014 .000000 
1.608000 -.002419 .000000 
1.876000 -.009259 .000000 
2.144000 -.016656 .000000 
2.412000 -.018425 .000000 
2.680000 -.015993 .000000 
2.948000 -.017949 .000000 
3.216000 -.018318 .000000 
3.484000 -.012703 .000000 
3.752000 -.014130 .000000 
4.020000 -.017681 .000000 
4.288000 -.014686 .000000 
4.556000 -.017092 .000000 
4.824000 -.024220 .000000 
5.092000 -.028254 .000000 
5.360000 -.036696 .000000 
5.628000 -.049835 .000000 
5.896000 -.053928 .000000 
6.164000 -.042016 .000000 
6.432000 -.028388 .000000 
6.700000 -.025051 .000000 
6.968000 -.024408 .000000 
7.236000 -.024944 .000000 
7.504000 -.029915 .000000 
7.772000 -.033788 .000000 
8.040000 -.036334 .000000 
8.308000 -.036173 .000000 
8.576000 -.038431 .000000 
8.844000 -.045446 .000000 
9.112000 -.050572 .000000 
9.380000 -.049285 .000000 
9.648000 -.046592 .000000 
9.916000 -.053319 .000000 
10.183999 -.061278 .000000 
10.451999 -.066826 .000000 
10.719999 -.070069 .000000 
10.987999 -.060307 .000000 
11.255999 -.045868 .000000 
11.523999 -.046397 .000000 
11.791999 -.056950 .000000 
12.059999 -.065841 .000000 
12.327999 -.071281 .000000 
12.595999 -.076172 .000000 
12.863999 -.076923 .000000 
13.131999 -.069579 .000000 
13.399999 -.067288 .000000 
13.667999 -.087663 .000000 
13.935999 -.111923 .000000 
14.203999 -.118845 .000000 
14.471999 -.119622 .000000 
14.739999 -.119615 .000000 
15.007999 -.120312 .000000 
15.275999 -.120191 .000000 
15.543999 -.113732 .000000 
15.811999 -.102530 .000000 
16.079999 -.087904 .000000 
16.347999 -.084420 .000000 
16.615999 -.109592 .000000 
16.883999 -.141424 .000000 
17.151999 -.159601 .000000 
17.419999 -.162542 .000000 
17.687999 -.159849 .000000 
17.955999 -.165155 .000000 
18.223999 -.169128 .000000 
18.491999 -.164967 .000000 
18.759999 -.153128 .000000 
19.027999 -.132023 .000000 
19.295999 -.114985 .000000 
19.563999 -.106925 .000000 
19.831999 -.089164 .000000 
20.099999 -.047034 .000000 
20.367999 -.009628 .000000 
20.635999 -.002687 .000000 
20.903999 -.005092 .000000 
21.171999 -.008817 .000000 
21.439999 -.017614 .000000 
21.707999 -.022331 .000000 
21.975999 -.015604 .000000 
22.243999 -.009728 .000000 
22.511999 -.012301 .000000 
22.779999 -.021487 .000000 
23.047999 -.031992 .000000 
23.315999 -.037373 .000000 
23.583999 -.043523 .000000 
23.851999 -.048608 .000000 
24.119999 -.050826 .000000 
24.387999 -.055402 .000000 
24.655999 -.060407 .000000 
24.923999 -.055650 .000000 
25.191999 -.044629 .000000 
25.459999 -.041862 .000000 
25.727999 -.042089 .000000 
25.995999 -.038659 .000000 
26.263999 -.035115 .000000 
26.531999 -.031416 .000000 
26.799999 -.026813 .000000 
27.067999 -.024401 .000000 
27.335999 -.024998 .000000 
27.603999 -.018184 .000000 
27.871999 -.012710 .000000 
28.139999 -.017715 .000000 
28.407999 -.024194 .000000 
28.675999 -.028274 .000000 
28.943999 -.024917 .000000 
29.211999 -.017380 .000000 
29.479999 -.018606 .000000 
29.747999 -.024113 .000000 
30.015998 -.021353 .000000 
30.283998 -.015001 .000000 
30.551998 -.015879 .000000 
30.819998 -.017246 .000000 
31.087998 -.013748 .000000 
31.355998 -.007470 .000000 
31.623998 -.001173 .000000 
31.891998 -.000001 .000000 
32.159998 -.000001 .000000 
32.427998 -.000001 .000000 
32.695998 -.000041 .000000 
32.963998 -.000670 .000000 
33.231998 -.004167 .000000 
33.499998 -.009420 .000000 
33.767998 -.012884 .000000 
34.035998 -.013393 .000000 
34.303998 -.018050 .000000 
34.571998 -.024448 .000000 
34.839998 -.023296 .000000 
35.107998 -.019242 .000000 
35.375998 -.018720 .000000 
35.643998 -.021118 .000000 
35.911998 -.025681 .000000 
36.179998 -.028910 .000000 
36.447998 -.028730 .000000 
.000000 -.000001 .268000 
.268000 -.000001 .268000 
.536000 -.000001 .268000 
.804000 -.000001 .268000 
1.072000 -.000001 .268000 
1.340000 -.000008 .268000 
1.608000 -.001247 .268000 
1.876000 -.004864 .268000 
2.144000 -.008717 .268000 
2.412000 -.009625 .268000 
2.680000 -.008452 .268000 
2.948000 -.009809 .268000 
3.216000 -.010914 .268000 
3.484000 -.007745 .268000 
3.752000 -.008040 .268000 
4.020000 -.010191 .268000 
4.288000 -.008194 .268000 
4.556000 -.009119 .268000 
4.824000 -.013105 .268000 
5.092000 -.015725 .268000 
5.360000 -.022127 .268000 
5.628000 -.032860 .268000 
5.896000 -.035500 .268000 
6.164000 -.025148 .268000 
6.432000 -.015055 .268000 
6.700000 -.012941 .268000 
6.968000 -.012834 .268000 
7.236000 -.013835 .268000 
7.504000 -.017199 .268000 
7.772000 -.019303 .268000 
8.040000 -.020485 .268000 
8.308000 -.020123 .268000 
8.576000 -.024127 .268000 
8.844000 -.037031 .268000 
9.112000 -.046491 .268000 
9.380000 -.045262 .268000 
9.648000 -.045279 .268000 
9.916000 -.050605 .268000 
10.183999 -.053804 .268000 
10.451999 -.055034 .268000 
10.719999 -.054642 .268000 
10.987999 -.046947 .268000 
11.255999 -.037359 .268000 
11.523999 -.041714 .268000 
11.791999 -.055191 .268000 
12.059999 -.064541 .268000 
12.327999 -.069844 .268000 
12.595999 -.075569 .268000 
12.863999 -.080192 .268000 
13.131999 -.075261 .268000 
13.399999 -.071047 .268000 
13.667999 -.088979 .268000 
13.935999 -.112590 .268000 
14.203999 -.119066 .268000 
14.471999 -.115964 .268000 
14.739999 -.115873 .268000 
15.007999 -.119106 .268000 
15.275999 -.119612 .268000 
15.543999 -.115414 .268000 
15.811999 -.105950 .268000 
16.079999 -.090025 .268000 
16.347999 -.082333 .268000 
16.615999 -.104996 .268000 
16.883999 -.138201 .268000 
17.151999 -.158679 .268000 
17.419999 -.165202 .268000 
17.687999 -.161051 .268000 
17.955999 -.161966 .268000 
18.223999 -.165406 .268000 
18.491999 -.161674 .268000 
18.759999 -.148160 .268000 
19.027999 -.126617 .268000 
19.295999 -.113421 .268000 
19.563999 -.106279 .268000 
19.831999 -.084206 .268000 
20.099999 -.041171 .268000 
20.367999 -.007434 .268000 
20.635999 -.001357 .268000 
20.903999 -.002579 .268000 
21.171999 -.004790 .268000 
21.439999 -.010197 .268000 
21.707999 -.012495 .268000 
21.975999 -.008127 .268000 
22.243999 -.004901 .268000 
22.511999 -.006482 .268000 
22.779999 -.013209 .268000 
23.047999 -.022884 .268000 
23.315999 -.029624 .268000 
23.583999 -.036361 .268000 
23.851999 -.042773 .268000 
24.119999 -.047443 .268000 
24.387999 -.053627 .268000 
24.655999 -.056548 .268000 
24.923999 -.049242 .268000 
25.191999 -.039902 .268000 
25.459999 -.038967 .268000 
25.727999 -.038870 .268000 
25.995999 -.034890 .268000 
26.263999 -.028954 .268000 
26.531999 -.021808 .268000 
26.799999 -.016006 .268000 
27.067999 -.014693 .268000 
27.335999 -.017326 .268000 
27.603999 -.014928 .268000 
27.871999 -.011129 .268000 
28.139999 -.014010 .268000 
28.407999 -.019862 .268000 
28.675999 -.023973 .268000 
28.943999 -.023654 .268000 
29.211999 -.020599 .268000 
29.479999 -.019420 .268000 
29.747999 -.019092 .268000 
30.015998 -.014713 .268000 
30.283998 -.012911 .268000 
30.551998 -.018170 .268000 
30.819998 -.019835 .268000 
31.087998 -.013795 .268000 
31.355998 -.005414 .268000 
31.623998 -.000607 .268000 
31.891998 -.000064 .268000 
32.159998 -.000533 .268000 
32.427998 -.001756 .268000 
32.695998 -.002530 .268000 
32.963998 -.003353 .268000 
33.231998 -.009035 .268000 
33.499998 -.015644 .268000 
33.767998 -.015279 .268000 
34.035998 -.010707 .268000 
34.303998 -.014268 .268000 
34.571998 -.021058 .268000 
34.839998 -.020311 .268000 
35.107998 -.018971 .268000 
35.375998 -.018556 .268000 
35.643998 -.020532 .268000 
35.911998 -.025239 .268000 
36.179998 -.028237 .268000 
36.447998 -.029132 .268000 
.000000 -.000001 .536000 
.268000 -.000001 .536000 
.536000 -.000001 .536000 
.804000 -.000001 .536000 
1.072000 -.000001 .536000 
1.340000 -.000001 .536000 
1.608000 -.000038 .536000 
1.876000 -.000235 .536000 
2.144000 -.000389 .536000 
2.412000 -.000413 .536000 
2.680000 -.000456 .536000 
2.948000 -.000835 .536000 
3.216000 -.001756 .536000 
3.484000 -.001394 .536000 
3.752000 -.000979 .536000 
4.020000 -.001357 .536000 
4.288000 -.000855 .536000 
4.556000 -.000574 .536000 
4.824000 -.000996 .536000 
5.092000 -.001599 .536000 
5.360000 -.003799 .536000 
5.628000 -.008047 .536000 
5.896000 -.008693 .536000 
6.164000 -.004215 .536000 
6.432000 -.000862 .536000 
6.700000 -.000416 .536000 
6.968000 -.000630 .536000 
7.236000 -.001364 .536000 
7.504000 -.002242 .536000 
7.772000 -.002409 .536000 
8.040000 -.002319 .536000 
8.308000 -.002278 .536000 
8.576000 -.007397 .536000 
8.844000 -.023346 .536000 
9.112000 -.037885 .536000 
9.380000 -.038133 .536000 
9.648000 -.038924 .536000 
9.916000 -.038719 .536000 
10.183999 -.034877 .536000 
10.451999 -.033935 .536000 
10.719999 -.030971 .536000 
10.987999 -.027058 .536000 
11.255999 -.023808 .536000 
11.523999 -.028894 .536000 
11.791999 -.046294 .536000 
12.059999 -.062042 .536000 
12.327999 -.068360 .536000 
12.595999 -.074594 .536000 
12.863999 -.082866 .536000 
13.131999 -.077834 .536000 
13.399999 -.070286 .536000 
13.667999 -.084641 .536000 
13.935999 -.106088 .536000 
14.203999 -.110841 .536000 
14.471999 -.100935 .536000 
14.739999 -.099740 .536000 
15.007999 -.106188 .536000 
15.275999 -.108463 .536000 
15.543999 -.110573 .536000 
15.811999 -.108021 .536000 
16.079999 -.097130 .536000 
16.347999 -.090822 .536000 
16.615999 -.108624 .536000 
16.883999 -.136157 .536000 
17.151999 -.154288 .536000 
17.419999 -.162227 .536000 
17.687999 -.156958 .536000 
17.955999 -.151594 .536000 
18.223999 -.150552 .536000 
18.491999 -.146063 .536000 
18.759999 -.130513 .536000 
19.027999 -.116362 .536000 
19.295999 -.114416 .536000 
19.563999 -.104972 .536000 
19.831999 -.076913 .536000 
20.099999 -.035929 .536000 
20.367999 -.006737 .536000 
20.635999 -.000081 .536000 
20.903999 -.000034 .536000 
21.171999 -.000383 .536000 
21.439999 -.001391 .536000 
21.707999 -.001331 .536000 
21.975999 -.000326 .536000 
[...]
CELL_DATA 18768
SCALARS APERTURE[MM] float
LOOKUP_TABLE default
.000003 
.000003 
.000003 
.000003 
.000003 
.000054 
.009621 
.027416 
.039208 
.034492 
.029480 
.042317 
.030954 
.019859 
.036662 
.034063 
.024683 
.043684 
.053198 
.059818 
.086966 
.112372 
.103341 
.064722 
.048830 
.051376 
.046257 
.053520 
.066142 
.069010 
.076326 
.068367 
.085358 
.096426 
.105860 
.091281 
.095086 
.118188 
.126925 
.140378 
.139896 
.101331 
.082142 
.103448 
.124352 
.139012 
.146114 
.158576 
.149115 
.129203 
.139950 
.210702 
.236992 
.238386 
.240101 
.238359 
.242888 
.237877 
.217053 
.193067 
.158549 
.179131 
.259236 
.306458 
.331945 
.318223 
.321171 
.339449 
.337064 
.322806 
.289708 
.238386 
.221556 
.206146 
.150509 
.037627 
.000884 
.009862 
.010506 
.024763 
.045694 
.043630 
.018787 
.020127 
.029078 
.056870 
.071100 
.078390 
.095703 
.098731 
.104574 
.117036 
.124593 
.098008 
.080507 
.086939 
.081418 
.073218 
.067241 
.058424 
.048830 
.048776 
.051215 
.021520 
.029319 
.041540 
.055235 
.057861 
.041808 
.027711 
.046712 
.049741 
.035671 
.024334 
.039182 
.029802 
.025192 
.004690 
.000003 
.000003 
.000003 
.000003 
.000161 
.002519 
.014150 
.023530 
.028006 
.025567 
.046632 
.051161 
.042022 
.034947 
.039932 
.044542 
.058183 
.057459 
.000003 
.000003 
.000003 
.000003 
.000003 
.000003 
.000295 
.001581 
.001528 
.001769 
.001876 
.004797 
.009246 
.001903 
.005896 
.004904 
.001903 
.002680 
.005280 
.007504 
.022726 
.040816 
.027470 
.005655 
.001233 
.002090 
.002948 
.007960 
.009970 
.009300 
.009246 
.007048 
.032240 
.082222 
.087422 
.077532 
.098329 
.093237 
.092085 
.080882 
.075978 
.058370 
.057030 
.091093 
.122637 
.130328 
.143300 
.156566 
.177282 
.146489 
.152733 
.208450 
.244577 
.232570 
.216651 
.231874 
.239726 
.236403 
.231981 
.205502 
.163078 
.157906 
.243692 
.296220 
.334812 
.336635 
.312381 
.322726 
.324012 
.309513 
.263256 
.221582 
.225844 
.196685 
.120305 
.020931 
.000027 
.000080 
.000188 
.002868 
.008254 
.002385 
.000214 
.000080 
.002573 
.017152 
.037949 
.049553 
.067241 
.080507 
.095730 
.111676 
.099080 
.072253 
.068447 
.075844 
.066759 
.057727 
.033446 
.015356 
.005440 
.014499 
.024120 
.022566 
.015624 
.025594 
.036528 
.042156 
.047409 
.047865 
.033071 
.023209 
.009085 
.034197 
.047650 
.042049 
.013320 
.000107 
.000054 
.000456 
.003806 
.010238 
.009836 
.014311 
.041299 
.046176 
.024522 
.007558 
.034384 
.036287 
.033018 
.041781 
.031785 
.047999 
.051188 
.059067 
.000003 
.000003 
.000003 
.000003 
.000003 
.000003 
.000003 
.000003 
.000003 
.000003 
.000003 
.000003 
.000003 
.000003 
.000027 
.000027 
.000003 
.000003 
.000003 
.000003 
.000161 
.000670 
.000590 
.000003 
.000003 
.000003 
.000003 
.000003 
.000003 
.000003 
.000003 
.001930 
.017956 
.054350 
.079087 
.061024 
.074504 
.043684 
.050009 
.048508 
.042398 
.039718 
.035349 
.047677 
.108942 
.134429 
.138824 
.158066 
.171011 
.127890 
.135179 
.180766 
.214909 
.194675 
.163587 
.185804 
.192102 
.199472 
.216732 
.209951 
.198508 
.207084 
.260308 
.289038 
.314230 
.312140 
.294505 
.283142 
.274539 
.260442 
.210889 
.235170 
.232731 
.184518 
.113793 
.032401 
.000536 
.000003 
.000003 
.000003 
.000003 
.000003 
.000003 
.000027 
.006084 
.024576 
.040200 
.039396 
.055208 
.072440 
.092648 
.110255 
.086644 
.074182 
.080454 
.080856 
.060729 
.043470 
.031946 
.010238 
.011229 
.007424 
.005601 
.017688 
.008335 
.019189 
.016911 
.015437 
.027872 
.054404 
.042237 
.025728 
.020984 
.043014 
.059228 
.056816 
.034626 
.021494 
.018840 
.027390 
.042960 
.054431 
.056816 
.058317 
.063972 
.065767 
.048240 
.025272 
.032991 
.030284 
.041540 
.052099 
.047597 
.053654 
.063168 
.084608 
.000003 
.000003 
.000003 
.000003 
.000003 
.000003 
.000003 
.000003 
.000003 
.000003 
.000003 
.000003 
.000003 
.000003 
.000003 
.000003 
.000003 
.000003 
.000003 
.000003 
.000003 
.000003 
.000003 
.000003 
.000003 
.000003 
.000003 
.000003 
.000003 
.000134 
.001179 
.003404 
.009219 
.037654 
.081686 
.086510 
.058210 
.025674 
.033580 
.063275 
.046793 
.034009 
.029480 
.029828 
.087797 
.124888 
.133089 
.136841 
.141370 
.077666 
.090664 
.154448 
.179185 
.176451 
.159138 
.151581 
.136975 
.155762 
.182267 
.189154 
.192746 
.227344 
.289922 
.281078 
.283115 
.263015 
.259236 
.239029 
.216303 
.213891 
.188833 
.211613 
.196578 
.141424 
.059201 
.010398 
.004234 
.000107 
.000027 
.000003 
.000003 
.000027 
.002734 
.004744 
.031704 
.078578 
.081258 
.029480 
.016777 
.022298 
.061372 
.063650 
.067697 
.089351 
.091924 
.060675 
.025567 
.028998 
.034143 
.015249 
.019618 
.023530 
.021226 
.045855 
.050598 
.033152 
.031302 
.044274 
.042424 
.079301 
.088949 
.065365 
.051510 
.056441 
.067938 
.082946 
.089994 
.098034 
.106289 
.120144 
.132874 
.121163 
.113578 
.121779 
.132446 
.133437 
.112078 
.068206 
.042719 
.026880 
.028328 
.054297 
.078658 
.088842 
.099696 
.140218 
.000003 
.000003 
.000003 
.000003 
.000003 
.000003 
.000003 
.000003 
.000003 
.000003 
.000003 
.000003 
.000003 
.000003 
.000003 
.000003 
.000003 
.000003 
.000003 
.000003 
.000003 
.000003 
.000003 
.000003 
.000003 
.000003 
.000003 
.000003 
.000590 
.013373 
.029855 
.023370 
.015115 
.046391 
.090557 
.115776 
.106316 
.091093 
.055664 
.068313 
.054779 
.023986 
.021842 
.052153 
.087448 
.121002 
.127193 
.131883 
.130302 
.099401 
.092272 
.155252 
.163051 
.171145 
.155896 
.126952 
.104091 
.092969 
.118644 
.103100 
.139869 
.171547 
.256074 
.285313 
.257682 
.240557 
.219546 
.189556 
.157638 
.193308 
.185885 
.187868 
.159165 
.087984 
.019618 
.002787 
.015866 
.003913 
.009058 
.003538 
.000536 
.009005 
.022860 
.027524 
.057620 
.082544 
.048776 
.002787 
.000003 
.000241 
.003752 
.011068 
.065794 
.099830 
.067348 
.040656 
.019242 
.013641 
.025782 
.016402 
.012676 
.039718 
.052608 
.070538 
.083241 
.047597 
.057861 
.067429 
.069412 
.088788 
.096453 
.066571 
.047356 
.047088 
.049928 
.059523 
.057057 
.069519 
.126871 
.180364 
.170555 
.132338 
.116928 
.134697 
.153162 
.143085 
.116660 
.073271 
.051242 
.049687 
.055744 
.064481 
.079140 
.095006 
.124272 
.165490 
.000003 
.000003 
.000003 
.000003 
.000003 
.000003 
.000003 
.000003 
.000003 
.000003 
.000003 
.000003 
.000003 
.000003 
.000003 
.000003 
.000003 
.000003 
.000003 
.000003 
.000003 
.000003 
.000003 
.000003 
.000003 
.000003 
.000003 
.003109 
.020073 
.042746 
.028837 
.033125 
.035751 
.066786 
.108138 
.116821 
.114677 
.105029 
.092755 
.109290 
.090236 
.051938 
.048722 
.081499 
.121886 
.144264 
.123602 
.115696 
.114945 
.124808 
.114999 
.126335 
.142120 
.160586 
.127514 
.080534 
.076675 
.081150 
.079944 
.064079 
.086457 
.133839 
.165329 
.244470 
.261729 
.238466 
.202796 
.170073 
.140646 
.182428 
.183741 
.164338 
.095917 
.035698 
.008898 
.018733 
.040200 
.038163 
.039610 
.021628 
.009514 
.049446 
.052716 
.053332 
.069546 
.043630 
.022566 
.000375 
.000003 
.000003 
.000003 
.008710 
.076621 
.082758 
.043738 
.036770 
.037815 
.026880 
.014579 
.014552 
.041781 
.067670 
.084474 
.097954 
.102296 
.086510 
.066786 
.068286 
.084902 
.112453 
.119930 
.087609 
.059174 
.056146 
.060005 
.052850 
.038860 
.072655 
.156780 
.217938 
.193550 
.140834 
.128024 
.140432 
.133142 
.120198 
.109210 
.079569 
.062417 
.085760 
.119528 
.128613 
.121190 
.127863 
.156298 
.187814 
.000003 
.000003 
.000003 
.000003 
.000003 
.000003 
.000003 
.000003 
.000003 
.000003 
.000003 
.000003 
.000003 
.000003 
.000003 
.000003 
.000027 
.000003 
.000003 
.000003 
.000003 
.000003 
.000003 
.000643 
.000348 
.002626 
.014472 
.037466 
.053439 
.062471 
.029694 
.014445 
.056896 
.114570 
.117116 
.114650 
.113391 
.104225 
.099535 
.098142 
.097606 
.090664 
.077720 
.088199 
.121136 
.137404 
.124834 
.111756 
.125799 
.133571 
.094711 
.094309 
.107870 
.133973 
.103180 
.070109 
.072950 
.080346 
.073191 
.054967 
.087850 
.129015 
.146730 
.181731 
.202340 
.216437 
.191861 
.177175 
.162676 
.175406 
.189771 
.135822 
.043845 
.020395 
.023075 
.039396 
.053332 
.062980 
.066062 
.045399 
.029748 
.070002 
.074638 
.069385 
.073218 
.033420 
.002332 
.000027 
.000003 
.000003 
.000003 
.003538 
.042103 
.034331 
.018867 
.018036 
.030311 
.021172 
.028354 
.059952 
.088869 
.099482 
.101652 
.106878 
.122824 
.124164 
.098168 
.106396 
.121913 
.131910 
.131990 
.112292 
.087931 
.069707 
.049098 
.047088 
.056789 
.096855 
.179212 
.216303 
.212872 
.178220 
.155547 
.145685 
.124540 
.116473 
.121511 
.106530 
.115186 
.142951 
.161792 
.175245 
.179024 
.200062 
.206306 
.214427 
.000003 
.000003 
.000003 
.000003 
.000003 
.000003 
.000003 
.000003 
.000003 
.000003 
.000003 
.000003 
.000003 
.000003 
.000375 
.002626 
.005950 
.000402 
.000003 
.000003 
.000003 
.000107 
.003404 
.014392 
.014365 
.038244 
.071315 
.070430 
.075040 
.093559 
.101170 
.061962 
.094550 
.116473 
.121752 
.115642 
.109558 
.109773 
.106557 
.106744 
.100071 
.101411 
.094148 
.084902 
.088708 
.110630 
.081686 
.067750 
.094550 
.098302 
.047436 
.042532 
.075308 
.092085 
.077077 
.069492 
.064106 
.064266 
.057700 
.033527 
.070484 
.115856 
.125799 
.170368 
.176853 
.202126 
.188886 
.185456 
.168331 
.185804 
.204430 
.142871 
.048883 
.029078 
.024415 
.041996 
.071931 
.084554 
.085974 
.084581 
.063168 
.079060 
.096855 
.094792 
.072253 
.021520 
.000884 
.000003 
.000003 
.000003 
.000003 
.004047 
.014606 
.016241 
.024549 
.009407 
.036743 
.050036 
.062846 
.112238 
.113042 
.106691 
.098865 
.105512 
.125076 
.143300 
.136546 
.132365 
.135742 
.118268 
.116098 
.116955 
.119206 
.109076 
.076648 
.075281 
.105994 
.127970 
.156914 
.133169 
.169001 
.185697 
.180900 
.157530 
.135313 
.137618 
.159272 
.168894 
.180659 
.175647 
.163212 
.186796 
.217428 
.259638 
.263900 
.256905 
.000003 
.000003 
.000003 
.000003 
.000003 
.000003 
.000003 
.000003 
.000003 
.000003 
.000003 
.000003 
.000003 
.000295 
.006512 
.022646 
.030606 
.014418 
.001474 
.001528 
.000134 
.008737 
.043604 
.056200 
.058558 
.104386 
.099240 
.088708 
.093961 
.113525 
.147507 
.147427 
.125719 
.104306 
.097364 
.091334 
.105672 
.102751 
.105029 
.110872 
.105780 
.107414 
.105914 
.092540 
.102832 
.074799 
.036421 
.039208 
.043979 
.044461 
.033554 
.017098 
.036823 
.058987 
.060461 
.061265 
.067724 
.061426 
.042800 
.022539 
.044274 
.094095 
.103019 
.140807 
.161202 
.182428 
.181061 
.190736 
.190736 
.198856 
.217938 
.166803 
.071958 
.025406 
.026746 
.079810 
.108862 
.118912 
.109773 
.101760 
.085385 
.093184 
.108620 
.107414 
.068340 
.017018 
.013427 
.000777 
.000003 
.000003 
.000003 
.000456 
.010881 
.016804 
.019778 
.026237 
.056119 
.080132 
.104091 
.130972 
.126308 
.112372 
.115535 
.120439 
.127729 
.135501 
.131106 
.138234 
.140030 
.131856 
.137672 
.149276 
.144479 
.123789 
.110684 
.120466 
.139869 
.154663 
.153162 
.101009 
.128667 
.159996 
.166106 
.174843 
.157504 
.152787 
.184947 
.209871 
.206548 
.197596 
.182186 
.186314 
.219090 
.249186 
.240182 
.248168 
.000003 
.000003 
.000003 
.000003 
.000003 
.000003 
.000003 
.000003 
.000003 
.000003 
.000003 
.000003 
.000003 
.002519 
.040307 
.055690 
.061935 
.056334 
.030391 
.028462 
.019296 
.024495 
.075442 
.107414 
.133464 
.146596 
.117089 
.102296 
.111354 
.135528 
.164070 
.158763 
.122637 
.078765 
.070162 
.078149 
.092514 
.092621 
.110443 
.108862 
.104815 
.106342 
.106423 
.115240 
.132151 
.100741 
.057218 
.035724 
.013052 
.003457 
.013025 
.036609 
.052501 
.043952 
.051778 
.059791 
.068930 
.072574 
.050598 
.023718 
.043845 
.081901 
.088494 
.109264 
.134777 
.167714 
.188484 
.201161 
.191111 
.162756 
.169054 
.146891 
.087261 
.048615 
.072976 
.141450 
.161014 
.166026 
.148552 
.123870 
.106503 
.108031 
.110255 
.100446 
.068903 
.036636 
.031302 
.009996 
.001313 
.001394 
.002707 
.003457 
.013132 
.041138 
.035885 
.046739 
.064481 
.098222 
.129310 
.140807 
.145202 
.124620 
.123602 
.123896 
.115213 
.121967 
.131320 
.148016 
.160184 
.160532 
.162515 
.175460 
.171332 
.140512 
.127112 
.139682 
.158308 
.164954 
.145256 
.118322 
.118912 
.150589 
.154743 
.153993 
.150080 
.138610 
.167554 
.209120 
.202206 
.202554 
.208638 
.201107 
.219894 
.222252 
.197623 
.216973 
.000003 
.000003 
.000003 
.000003 
.000003 
.000003 
.000003 
.000003 
.000003 
.000003 
.000003 
.000003 
.000003 
.015330 
.078283 
.083562 
.082517 
.086591 
.065874 
.073888 
.077104 
.077372 
.126603 
.164900 
.166321 
.149571 
.128399 
.123334 
.119796 
.127729 
.137136 
.132499 
.105780 
.070457 
.059255 
.061908 
.077291 
.088628 
.093050 
.095462 
.110711 
.125665 
.128774 
.142067 
.154743 
.133705 
.049741 
.004127 
.000268 
.000697 
.019082 
.057030 
.045024 
.027711 
.048454 
.056468 
.069332 
.098222 
.082705 
.039584 
.054297 
.063462 
.070779 
.086778 
.123468 
.178810 
.204806 
.191620 
.146087 
.124379 
.112882 
.090396 
.074504 
.093398 
.147400 
.214105 
.227478 
.217134 
.183714 
.123736 
.099401 
.121940 
.114061 
.094470 
.063034 
.050706 
.057030 
.046230 
.037118 
.028622 
.034063 
.044783 
.052930 
.072038 
.070109 
.072012 
.083428 
.114463 
.157504 
.161068 
.146998 
.124754 
.118295 
.113230 
.108942 
.123602 
.147159 
.168277 
.188886 
.185134 
.186314 
.196766 
.192397 
.160210 
.136090 
.151742 
.164391 
.148767 
.121297 
.115052 
.129042 
.158736 
.153966 
.155011 
.159004 
.145578 
.163936 
.204645 
.211238 
.198400 
.193496 
.172351 
.191004 
.210889 
.196122 
.187627 
.000003 
.000003 
.000003 
.000003 
.000003 
.000003 
.000003 
.000003 
.000003 
.000003 
.000003 
.000003 
.000295 
.038083 
.101760 
.119448 
.104413 
.088145 
.079355 
.096641 
.114436 
.130650 
.159165 
.178863 
.162971 
.131936 
.131481 
.143139 
.129900 
.116526 
.118402 
.113498 
.094175 
.074316 
.057084 
.041004 
.073566 
.086135 
.094792 
.090959 
.117947 
.140968 
.146382 
.161363 
.160478 
.121994 
.058853 
.023557 
.002680 
.006378 
.027014 
.072574 
.050545 
.027309 
.047677 
.045346 
.058397 
.107307 
.102644 
.068260 
.067348 
.065526 
.056789 
.061238 
.111595 
.172244 
.208692 
.179962 
.117357 
.098838 
.094792 
.084527 
.079301 
.097472 
.163855 
.233803 
.236001 
.224289 
.185617 
.090691 
.062471 
.078015 
.099937 
.091227 
.066062 
.081177 
.083750 
.092808 
.103689 
.084206 
.079435 
.082142 
.078470 
.083911 
.083375 
.089030 
.106316 
.148579 
.178595 
.164579 
.150160 
.124968 
.109987 
.116339 
.121538 
.141531 
.166214 
.192210 
.212390 
.205690 
.212122 
.232731 
.225710 
.190092 
.164659 
.171440 
.175406 
.144961 
.118027 
.114570 
.131293 
.151715 
.156351 
.155896 
.159594 
.150991 
.157155 
.168894 
.185644 
.171332 
.152894 
.136626 
.145256 
.155976 
.151313 
.164123 
.000003 
.000003 
.000750 
.000134 
.000590 
.004636 
.000161 
.000003 
.000003 
.000080 
.001474 
.000188 
.004181 
.059576 
.113739 
.119394 
.109880 
.100125 
.101572 
.105887 
.128908 
.142228 
.161952 
.170662 
.151474 
.133893 
.124030 
.136653 
.127246 
.121726 
.111166 
.100688 
.086242 
.070806 
.057781 
.048964 
.077827 
.095703 
.097418 
.095622 
.116258 
.130516 
.143889 
.156432 
.146114 
.103314 
.075040 
.059201 
.033286 
.035644 
.043175 
.072923 
.085599 
.063596 
.056146 
.041808 
.047865 
.093773 
.104466 
.071449 
.060086 
.069519 
.066518 
.074772 
.089994 
.146971 
.185000 
.181865 
.130838 
.084929 
.085412 
.088494 
.083723 
.094336 
.143568 
.216062 
.237796 
.228175 
.176156 
.084581 
.055128 
.048401 
.054618 
.085412 
.078658 
.091924 
.103394 
.125665 
.141799 
.133410 
.108004 
.108808 
.099508 
.091415 
.086269 
.085840 
.110255 
.161711 
.179104 
.163641 
.142898 
.125183 
.112185 
.130302 
.142924 
.168786 
.192210 
.210219 
.214775 
.216866 
.232838 
.268080 
.252027 
.218045 
.192987 
.189556 
.180525 
.149732 
.124620 
.111622 
.121806 
.137940 
.140888 
.142415 
.154073 
.158334 
.162274 
.157102 
.153350 
.164659 
.161014 
.135554 
.118858 
.105270 
.100446 
.120359 
.000003 
.000402 
.006298 
.007370 
.004583 
.015946 
.009246 
.009702 
.003296 
.005601 
.020475 
.013856 
.020502 
.075335 
.100018 
.089137 
.097391 
.108969 
.114758 
.119608 
.147480 
.145444 
.138127 
.139601 
.119876 
.113525 
.108379 
.111702 
.110014 
.114811 
.102510 
.092138 
.080936 
.070832 
.058290 
.057781 
.073914 
.085197 
.092916 
.102590 
.117545 
.131749 
.137832 
.127407 
.101652 
.083804 
.081445 
.069841 
.058612 
.063838 
.057995 
.077372 
.107468 
.107950 
.053010 
.033366 
.039396 
.077211 
.109210 
.093210 
.059416 
.062015 
.074933 
.079516 
.077666 
.121833 
.162194 
.153430 
.149892 
.087850 
.080588 
.080159 
.081579 
.099428 
.153484 
.210058 
.227076 
.223217 
.196926 
.126469 
.079650 
.066196 
.067750 
.093264 
.100393 
.112292 
.119314 
.141852 
.149169 
.148418 
.133410 
.112774 
.094256 
.081794 
.077211 
.083562 
.103502 
.137162 
.149464 
.140914 
.133196 
.137940 
.127675 
.136814 
.165436 
.188699 
.201402 
.208477 
.215579 
.232919 
.249374 
.256503 
.227237 
.216115 
.198936 
.193094 
.199097 
.171172 
.154529 
.138395 
.138181 
.147239 
.143648 
.144291 
.149383 
.169242 
.160961 
.163346 
.163668 
.176022 
.178702 
.147078 
.129122 
.114704 
.096668 
.108835 
.001662 
.018036 
.036716 
.054029 
.052367 
.041567 
.050786 
.049580 
.010961 
.022110 
.047543 
.034518 
.058772 
.075496 
.076996 
.039048 
.071824 
.111702 
.127327 
.146891 
.145685 
.120761 
.106691 
.094390 
.090825 
.083750 
.083804 
.086242 
.092782 
.095998 
.091870 
.084340 
.089887 
.088092 
.067322 
.054752 
.064347 
.077318 
.078202 
.084018 
.126201 
.130570 
.134911 
.117786 
.087931 
.089164 
.087341 
.057459 
.055315 
.058853 
.054806 
.072414 
.107414 
.128801 
.071342 
.040736 
.044890 
.053868 
.095917 
.108620 
.075764 
.060327 
.057057 
.064347 
.068688 
.098061 
.142603 
.122128 
.115294 
.090048 
.078122 
.069412 
.071368 
.097445 
.162301 
.203975 
.210568 
.219599 
.231820 
.212229 
.142656 
.098544 
.103796 
.158254 
.160237 
.152010 
.148820 
.159299 
.147641 
.146676 
.144104 
.112774 
.094684 
.087582 
.089592 
.096775 
.112587 
.132901 
.136680 
.139976 
.142442 
.150723 
.147588 
.161416 
.185778 
.198963 
.199044 
.210139 
.211640 
.219144 
.219224 
.216490 
.206950 
.209871 
.194246 
.197730 
.210219 
.192102 
.183821 
.167178 
.159916 
.164820 
.147561 
.138663 
.162167 
.179399 
.162569 
.165865 
.171868 
.179694 
.203171 
.178220 
.159594 
.143702 
.102054 
.096587 
.009353 
.017581 
.069412 
.110630 
.100688 
.079248 
.070993 
.034545 
.007022 
.030230 
.051724 
.022646 
.031678 
.065526 
.085358 
.067831 
.090611 
.125263 
.149678 
.154127 
.120010 
.083723 
.038136 
.035456 
.049500 
.055878 
.066035 
.074209 
.080748 
.080963 
.076889 
.066303 
.070779 
.074879 
.073405 
.060300 
.057057 
.067241 
.049768 
.034706 
.112346 
.139038 
.139896 
.107736 
.086457 
.089646 
.087020 
.069626 
.071234 
.067858 
.050330 
.056602 
.079462 
.126442 
.119689 
.087582 
.063757 
.049392 
.072172 
.089244 
.086242 
.057406 
.043872 
.048722 
.059978 
.074611 
.111274 
.103260 
.080266 
.082196 
.071556 
.059362 
.073727 
.116634 
.171842 
.189422 
.209737 
.217241 
.240289 
.243880 
.223083 
.190870 
.196578 
.230024 
.222145 
.202072 
.195104 
.187091 
.162917 
.150696 
.143434 
.147775 
.149383 
.120841 
.109210 
.121565 
.134965 
.138368 
.140914 
.132070 
.144077 
.167446 
.171815 
.188940 
.205985 
.201670 
.191968 
.187627 
.183419 
.184840 
.177336 
.176719 
.172217 
.191674 
.214775 
.220805 
.215686 
.215016 
.201536 
.183955 
.167178 
.161845 
.156056 
.140244 
.167312 
.182669 
.168250 
.172860 
.185644 
.189235 
.195908 
.188243 
.174441 
.155360 
.124888 
.112051 
.017179 
.024093 
.119555 
.140888 
.113418 
.102162 
.079167 
.044810 
.030927 
.029185 
.053305 
.062417 
.032321 
.061935 
.089914 
.105538 
.117598 
.139976 
.154261 
.131427 
.093693 
.037868 
.001662 
.001769 
.005923 
.011953 
.027658 
.050196 
.059201 
.057191 
.052796 
.052126 
.056521 
.063462 
.067107 
.042934 
.043898 
.074477 
.051831 